4
	Energy:      -0.0296781
C          0.00000        0.00000        0.00000
C          0.00000        0.00000        1.20535
H         -0.00000       -0.00000       -1.05838
H          0.00000        0.00000        2.26373
